9
Properties=species:S:1:pos:R:3 energy=-5.305914344216303 energy_total=-143880.42757419441 forces="_JSON [[-7.1360564638646995, 6.877827328060344, 11.0181037475965], [-2.5749451966196863, -0.5506763239165791, -8.212479595698818], [1.6032265063099578, -3.0359544757860677, -1.920847489558157], [3.1633887352560217, -7.886971716626539, -4.090195639001148], [-2.177272991540767, 0.6176941865528245, 0.5875672168781042], [0.9686640152769783, 1.5492182864471276, -0.06300030090838621], [4.326998174197282, -0.3372024462978186, 2.856604970611981], [-0.44600745702378164, -0.13384243644083432, -0.855234302443976], [2.2720046780086993, 2.8999087838285984, 0.6794802067028487]]" forces_total="_JSON [[-9.452283966406158, 5.8322794189854426, 10.181974208138802], [0.9624621711693344, 2.17423847546592, -6.242048184626897], [0.3820466410623958, -4.715321366093665, -3.0551481753513277], [4.71782819179989, 3.08061249664531, -5.427405722651129], [-10.890233105979009, -11.071414704680114, 1.5310752243349022], [8.127184673171351, 2.270742964408215, 0.330701775284798], [-0.7082624553033671, -2.618366406120559, 0.291140413311722], [4.386324801483204, 1.0320176908591836, -5.550118042687692], [2.4749330490023604, 4.015212616351321, 7.939828504246825]]" pbc="F F F"
O       27.41000000      26.73000000      26.86000000
H       26.54000000      26.42000000      26.60000000
H       27.24000000      27.54000000      27.35000000
O       26.72000000      29.11000000      28.08000000
H       27.16000000      29.95000000      28.00000000
H       25.79000000      29.32000000      27.99000000
O       24.85000000      25.48000000      27.23000000
H       24.06000000      25.25000000      27.72000000
H       24.64000000      25.27000000      26.32000000
9
Properties=species:S:1:pos:R:3 energy=-5.766469189148745 energy_total=-143880.85105525627 forces="_JSON [[3.502206269828145, -4.536056054214345, -4.621652175289299], [-5.831250126311363, 6.003813177598636, -0.006160340370784945], [-3.1866557301386336, 0.0694997861003538, 5.7652093802228634], [0.5444519492089268, 0.553206866043866, -3.180867737578518], [2.7332760236278126, -0.23413680946879498, 1.8778211584679618], [-0.7100198421040416, -0.9008943420930768, 0.5022189324032476], [3.934778374320455, -3.3772207308328137, -0.9226162121435165], [-1.678497683475684, -0.8883104090777215, 0.7994295636857197], [0.6917107650443841, 3.3101008875860054, -0.21338256939767292]]" forces_total="_JSON [[-3.722575696870603, -12.299148602888087, -7.023548133989948], [0.14851697197278124, 16.162183617675748, -0.9860967705784038], [-1.9416408617240313, -2.325779291124072, 9.147040583310078], [-4.636122749600115, 4.450463490602554, -3.1978700398376745], [8.66074959929189, 2.0994368834372152, -2.0521036502822096], [-1.4569187189590769, -7.131724659557775, 4.449146043412575], [2.7651461502505685, -6.321545628025825, -13.179725087057577], [-6.159274317658291, 1.6870047637105279, 14.657623352087862], [6.3421196232968775, 3.6791106119907666, -1.814467482885756]]" pbc="F F F"
O       27.23000000      27.15000000      27.34000000
H       26.73000000      26.34000000      27.39000000
H       26.89000000      27.61000000      26.57000000
O       26.06000000      27.76000000      24.61000000
H       25.22000000      27.63000000      25.05000000
H       25.97000000      28.60000000      24.16000000
O       26.85000000      24.05000000      27.21000000
H       27.06000000      23.87000000      26.30000000
H       25.90000000      23.94000000      27.27000000
9
Properties=species:S:1:pos:R:3 energy=-1.2751018949736685 energy_total=-143876.31180217196 forces="_JSON [[1.0653878811140942, 8.479479064011803, -2.207966783678862], [9.866855307312614, -7.040325130249017, 3.3955760549135423], [0.8556090218967519, -5.432871171884806, 0.7323476667126096], [-5.368995735039241, -1.245396702793697, -6.9378180151359965], [-0.18015823513229173, 0.7184605163599119, -1.6823610884666405], [2.496933587000277, -1.1180086903448134, 1.2458591730044009], [-5.443356201636197, -1.7571259200426992, 2.26549689206936], [-0.9349333354219279, -0.25340284411829317, 0.6945081169086149], [-2.3573411042730252, 7.649192064882664, 2.4943579836729723]]" forces_total="_JSON [[7.357297469381178, 12.878485035836716, 2.6037748780623287], [1.5726406238876944, -8.056063869691426, 8.213057090551672], [2.8579141170545883, -8.816138404267308, -8.896875030666711], [-2.093737827456081, 1.2347136409264399, -3.7335255684748057], [-3.850972843035664, 5.629582283097133, -3.005546466521767], [2.8924902873204883, -8.509240800802171, -0.6352478956016643], [5.41200427881364, -1.8878828501034022, 8.025397351437555], [-8.467190400438666, -3.617287831388095, 8.010779735316156], [-5.680444519706125, 11.143833982213168, -10.58181409410276]]" pbc="F F F"
O       26.55000000      26.79000000      26.70000000
H       27.43000000      26.98000000      26.38000000
H       26.53000000      27.16000000      27.58000000
O       27.26000000      28.21000000      28.95000000
H       27.96000000      27.67000000      29.32000000
H       27.41000000      29.08000000      29.32000000
O       28.30000000      26.21000000      24.68000000
H       29.06000000      26.48000000      24.17000000
H       28.65000000      26.00000000      25.54000000
9
Properties=species:S:1:pos:R:3 energy=-7.438245160914478 energy_total=-143882.48704925226 forces="_JSON [[11.360094539306685, 5.015523823893074, -11.11671899801329], [-1.4415552213952847, 0.7948961697997695, 4.220581407072235], [-6.744525626019717, 0.14818849954107643, 1.7529209985884542], [-2.892296998488835, -4.06981967584596, 5.692919357184596], [-0.4372406819783127, 2.046070192764105, 0.3980919857317113], [-0.7055540400181171, -1.908733141679823, -0.3565467451368207], [0.9673536830133168, -2.7943790108512596, 2.059822159516751], [1.0053189298489384, 0.5396517455860329, -0.25130986995959537], [-1.1115957700897208, 0.22859902515088015, -2.3997591091629866]]" forces_total="_JSON [[22.614620173541276, 0.8010624392758201, -10.242617096793653], [-10.92760662810914, 10.15135037944284, -3.04869849464359], [-8.513001039361509, -4.9938043254847395, 8.14809899908464], [-3.1332949685707896, 1.4654080118781239, -1.7051015788016826], [-1.4039919678966615, 6.573857516775279, 5.151680983029534], [0.5021952159821857, -11.97174696759403, 2.2878840077305824], [1.3030074470158046, 5.96473563061522, 8.156900162940648], [2.332575231579311, 2.034522667349147, -0.06316038675055291], [-2.774505835822582, -10.025386538078713, -8.684986595795927]]" pbc="F F F"
O       26.63000000      27.00000000      27.14000000
H       27.32000000      26.46000000      27.51000000
H       27.06000000      27.49000000      26.44000000
O       28.40000000      28.06000000      25.37000000
H       28.53000000      27.52000000      24.59000000
H       28.30000000      28.95000000      25.04000000
O       28.71000000      24.61000000      28.48000000
H       27.88000000      24.20000000      28.74000000
H       28.77000000      25.40000000      29.01000000
9
Properties=species:S:1:pos:R:3 energy=-2.530844254852435 energy_total=-143877.64851932574 forces="_JSON [[-1.242222259834584, 8.153691331170997, -6.036381752821659], [1.8782136652365335, -7.966371922699116, 5.125928507219652], [4.892044277635164, -1.2060013557680531, -0.5208588535367159], [-0.9812858945660314, 2.7351211611864152, -2.125956585468445], [-0.25772516185679345, -2.7136269687781676, 0.32221129654469727], [-2.3711997949204484, 0.155481299017559, 4.231093710707847], [0.5592201646040691, -0.5819630265812169, 2.0018023070313284], [-2.155043590079606, 1.5263947886383686, -2.9141066192972036], [-0.3220037778604073, -0.10272412036573524, -0.0837320103794996]]" forces_total="_JSON [[2.146366937434171, 13.692484782801712, -13.885004016591378], [-1.6753849032113317, -14.45236247108278, 14.70770769008603], [5.057054834635328, -0.2588042590151028, -2.254015772633375], [3.171974079680369, 10.188745246351926, 3.507974103430358], [-5.5844262173955945, -10.569551518592794, -5.94439761373373], [-1.1977587136280479, 0.5577805778456212, 4.863771932087473], [6.610057076062854, -2.0654334647399564, -2.74838101220203], [-5.82519413819325, 4.807620933581714, 6.253975172778842], [-2.702690141205549, -1.9004798271503416, -4.501630483222189]]" pbc="F F F"
O       26.64000000      26.73000000      26.98000000
H       27.03000000      27.26000000      26.29000000
H       27.31000000      26.70000000      27.67000000
O       27.94000000      28.38000000      25.01000000
H       28.48000000      28.97000000      25.53000000
H       28.52000000      27.64000000      24.80000000
O       27.99000000      26.86000000      30.32000000
H       28.47000000      26.59000000      29.54000000
H       28.67000000      27.13000000      30.94000000
9
Properties=species:S:1:pos:R:3 energy=-4.494224958515873 energy_total=-143879.56174503322 forces="_JSON [[-8.076244172372856, 1.141938559196101, 10.634790649649407], [0.9081420803695424, 5.079669627938742, 6.337856596611032], [0.6035473413894996, -4.729354372435892, 0.808298319341754], [12.196598798217154, -2.814916245669667, -13.904428951261991], [0.4585131258496334, -1.194006775816082, 2.5401425345326474], [1.2604495152415784, -0.6580702075893694, -1.9499297508851063], [-6.224115012841068, 2.357622143862607, -5.237265245893953], [1.8002056130802835, 0.576904313968751, 1.5801065532379277], [-2.927097288933768, 0.24021177072375766, -0.8095683336896108]]" forces_total="_JSON [[-11.983755777398637, -0.14227836741249253, 19.56431726301286], [-2.6906481284114543, 7.598746051463306, 5.4940642815082885], [8.109849155196278, -5.964213869351861, -7.2774359789189536], [6.360075325682716, -1.8785397660261325, -18.092259166669024], [7.109854561875698, -2.5048726589506916, 7.799210286308653], [0.44563155174995367, -0.2835808040982948, -3.021167287254077], [-3.3345691191953946, -4.260076363066337, 6.746156129967712], [4.872663218343516, 14.085152823036605, -2.542261596754513], [-8.889100787842674, -6.650338231415154, -8.670621559558835]]" pbc="F F F"
O       26.93000000      27.22000000      26.61000000
H       27.64000000      26.66000000      26.93000000
H       26.32000000      27.29000000      27.34000000
O       25.17000000      28.04000000      28.30000000
H       24.36000000      28.13000000      27.80000000
H       24.91000000      27.59000000      29.11000000
O       28.74000000      25.30000000      27.49000000
H       28.58000000      24.43000000      27.84000000
H       29.21000000      25.76000000      28.18000000
9
Properties=species:S:1:pos:R:3 energy=-6.3563549471389225 energy_total=-143881.43213175263 forces="_JSON [[-2.993695370917219, 1.5451853090455796, -10.96575567720799], [6.773523694051899, -5.667118262711537, 2.1557799849535733], [0.9865224803364621, -4.319439750804906, 2.2967918954813693], [-4.064870058770376, 5.559674574554518, 4.766236964650044], [-1.6087986794384108, 2.650735763406665, 1.7789296117458029], [1.912289419018031, -0.7262489890365849, -0.3807161498408321], [-2.0735587105957056, 0.08892590659201903, 2.3060863608954625], [1.0808509876463441, 0.6610205303694491, -2.0799230121876215], [-0.012266132973128074, 0.20726610440585197, 0.1225723931523003]]" forces_total="_JSON [[-1.5176908621087133, 1.602588534583397, -15.215590103838817], [7.027585854675707, -0.7700911650113037, 4.289876046130404], [-0.7435441890958534, -9.273868888221905, 4.412529075114313], [8.335195473198542, 0.45873961767077326, 1.6836322886355495], [-15.592024253856955, 8.440796395439065, -1.2724808556461955], [3.49545064728871, -1.4153758500062932, 5.753297807744608], [-1.100375531285415, -1.0899509784077306, -10.735922212340848], [2.3566307974622265, -1.2355188134214856, -2.986351581135454], [-2.261229122099301, 3.282682333196536, 14.07100953533644]]" pbc="F F F"
O       26.81000000      27.00000000      27.26000000
H       26.85000000      26.23000000      26.69000000
H       27.14000000      27.72000000      26.72000000
O       26.79000000      25.33000000      25.04000000
H       27.66000000      24.97000000      25.17000000
H       26.68000000      25.38000000      24.09000000
O       27.46000000      29.42000000      25.60000000
H       26.93000000      30.22000000      25.65000000
H       27.58000000      29.26000000      24.67000000
9
Properties=species:S:1:pos:R:3 energy=-6.9394797059966615 energy_total=-143882.02561012536 forces="_JSON [[-5.6673340821432, -11.42454035607878, 1.3209916091069163], [2.322481522775438, 0.33095909845331783, 1.8129152431272655], [-0.7537292061208151, 1.394137794945512, 1.5149112975602783], [-1.2401043834337715, 12.556399436323646, 0.11192964920084648], [-0.8711254903763905, 0.24175926719803575, -1.2368896225588542], [-0.12539939054285748, -2.5494974768204477, 1.562580118073308], [8.017821140729385, 0.25749748421460134, -6.665611606578909], [-0.7767910539612444, 0.6883738646009991, 1.851141370594566], [-0.9058202427475986, -1.4950902986579349, -0.27196568688331113]]" forces_total="_JSON [[-3.778657917755283, -17.344871731540117, 1.220085352415563], [4.475978802201819, -1.9070848504160336, 0.597913505566285], [-4.795902649935114, 9.5525131192762, 2.8308181059915594], [-3.511657263621245, 8.642153553537385, 0.8632753550049568], [0.89817169695519, 4.511938825636671, -7.176538022974972], [0.3768563023130356, -2.905431152472823, 6.750882812685316], [-2.7310277069111604, -7.744547493224518, -2.8365064895832153], [9.300311511884683, 13.292793124469387, 2.1678777313371627], [-0.23407396095298122, -6.097464581087205, -4.4178071646216015]]" pbc="F F F"
O       27.22000000      27.42000000      26.68000000
H       26.47000000      27.46000000      27.28000000
H       27.48000000      26.50000000      26.69000000
O       27.69000000      24.78000000      26.30000000
H       27.35000000      24.09000000      26.87000000
H       27.41000000      24.52000000      25.42000000
O       24.85000000      27.34000000      28.10000000
H       24.22000000      26.63000000      28.14000000
H       24.59000000      27.94000000      28.80000000
9
Properties=species:S:1:pos:R:3 energy=-6.410791040745329 energy_total=-143881.4386205313 forces="_JSON [[10.489764734856912, -4.295711471532643, 11.213863830324252], [6.1246412279818445, 8.003669552281847, -5.0610486799421235], [-4.595173976994928, -0.47636921926701187, 1.690667764943513], [-8.811103408075903, -2.6874784287365543, -5.161530412696472], [-6.35217775746916, -2.450454145003493, -0.9605719724107141], [1.2008216894081711, 1.9207834552212906, -0.1925512509581004], [0.5819428676233143, -3.271562889181743, -1.4817735282317726], [0.036244620487592666, 0.33874519948788456, 1.1624698649092438], [1.325037630540048, 2.9183815041935817, -1.2095244301167738]]" forces_total="_JSON [[14.432995641643767, -7.968164884131382, 11.6581482893579], [2.73468122157572, 6.276560320555931, -10.936873819639013], [-5.148444877375661, 4.92319223923659, 7.122208445606756], [6.2189104442390715, -13.407904331555667, -5.005677951689297], [-9.320701704892508, -7.482811884566185, 4.992115716305144], [-10.8606670296624, 17.673567097603094, -6.301091400681134], [-1.087823615438493, -3.7265078794826385, -2.8041750785708093], [0.34058085047806264, 0.4731271845078732, 5.757388890377758], [2.690467883611386, 3.238944509474489, -4.482041905246251]]" pbc="F F F"
O       26.67000000      27.35000000      26.88000000
H       27.29000000      27.36000000      27.61000000
H       26.94000000      26.60000000      26.35000000
O       28.57000000      27.18000000      28.76000000
H       29.03000000      27.67000000      28.08000000
H       29.16000000      26.48000000      29.00000000
O       27.67000000      24.65000000      25.63000000
H       27.28000000      24.54000000      24.76000000
H       26.95000000      24.47000000      26.24000000
9
Properties=species:S:1:pos:R:3 energy=-8.418356490560926 energy_total=-143883.6210113662 forces="_JSON [[-9.616810708416663, -4.877452749576933, -6.371191212234351], [3.4481458738389787, 5.912214430352959, 2.8977173865224946], [2.011137090361226, 2.315137732993672, -0.6133279934353578], [1.9511191294013523, -2.6395985320760755, 2.681839849629127], [-0.279304733380864, 0.4552829493010257, 1.7901213908448343], [2.4823195283420376, 0.4021368213437893, -0.17372515591929694], [-0.5220079141371572, 0.06361455621388518, 1.521534108141767], [-0.38764490225401793, -2.0175950718163356, -0.20435847118368355], [0.9130442646030027, 0.38626104908506553, -1.528611088186588]]" forces_total="_JSON [[-8.387523384629148, -9.08523440420215, -4.853190850830781], [3.7284087506307366, 4.2042573944554436, 3.273904885761589], [0.5015880756030054, 8.230876423516404, -2.507515854078022], [-1.6773071191383855, -0.04546319335428812, 3.0741746741481024], [-2.691121271011636, 0.7454308303913142, 4.10390017291167], [8.522563500333598, -2.4821463984682866, -2.879838762505107], [4.372882334025415, -2.896838693122157, -2.4014785496899624], [-2.0662018767823565, -6.249517671440291, 2.6734145910469467], [-2.303289009031231, 7.578636898045063, -0.4833703067644355]]" pbc="F F F"
O       27.27000000      27.39000000      27.27000000
H       26.62000000      27.51000000      26.57000000
H       27.33000000      26.44000000      27.38000000
O       25.42000000      27.04000000      25.21000000
H       25.76000000      27.36000000      24.37000000
H       24.63000000      27.56000000      25.36000000
O       28.26000000      24.59000000      26.60000000
H       28.66000000      25.24000000      26.02000000
H       28.71000000      23.77000000      26.40000000
9
Properties=species:S:1:pos:R:3 energy=-3.6586575176521103 energy_total=-143878.62888540982 forces="_JSON [[-8.022929657826081, -13.086271715684873, -3.207256999293908], [4.876638090513463, -0.01889487265988228, 4.097461164593408], [1.6500877826858353, -1.9299569668879692, 2.2297894485188148], [1.46497993047796, 9.104487394820065, 0.7239437529093845], [-3.2779615795841983, 1.6545808586559803, 3.1592134593281043], [-0.866588539027281, -1.859201396292396, 2.4407932608839964], [0.5402375411862578, 8.066314106874309, -7.3943804653533025], [1.2250278545648283, -3.623630788201056, 2.4785533606774344], [2.4105085770092174, 1.692574565196875, -4.528116982263931]]" forces_total="_JSON [[-8.078828076447532, -24.875912144156388, -4.463952205081415], [7.407269154379302, 2.1913202277356323, -3.8869625119968427], [-0.8246448625585538, 7.649468361188032, 11.470908330896574], [6.020203596194399, 2.193223470525836, -14.446525859859486], [-2.6999959557729363, 0.7859100178594792, 1.2926172829486595], [-5.999779014376034, 5.920733368798334, 19.47785905003231], [8.254744629672933, 1.709828261519286, -9.746037929318884], [3.968121290691145, -3.1607301244550015, 6.477848701033173], [-8.047091947603775, 7.5861585609847895, -6.17575485865409]]" pbc="F F F"
O       27.04000000      27.35000000      26.85000000
H       26.77000000      26.96000000      27.68000000
H       27.19000000      26.61000000      26.27000000
O       27.15000000      24.99000000      25.39000000
H       27.34000000      24.38000000      26.11000000
H       27.43000000      24.53000000      24.61000000
O       25.71000000      25.19000000      27.99000000
H       25.33000000      24.96000000      27.14000000
H       26.52000000      24.69000000      28.04000000
9
Properties=species:S:1:pos:R:3 energy=-4.3481045751489305 energy_total=-143879.36171250785 forces="_JSON [[1.394397489756138, -2.7920109262082464, 1.5148235468023494], [6.454875789771727, 1.8169683794867157, 0.23284070705777132], [-2.436013216219003, -2.183983552880185, -7.436107136569316], [-3.77014372259412, 1.9203873909895601, 1.0592038243222477], [0.5025568914033763, -2.579266328537134, -0.5288987202766435], [0.3899477667391122, 1.1911442037939297, -0.6669093177190774], [-0.03550941143467895, -0.14228785398091703, 3.539913007674193], [-0.1824172242384212, -0.2914582133539487, -0.9113841151286812], [-2.31769554900518, 3.060505714869173, 3.196518203837156]]" forces_total="_JSON [[6.579470007819538, -1.5565466605552025, -3.181602946631432], [8.79871632135536, 2.934088889862767, -1.4211092947979669], [-9.964926265866039, -4.53656832890928, -1.0857306412797953], [-7.427355777197535, -7.967749846762801, 4.018337254826204], [10.54696044171044, -1.1903176865199296, -1.4230825010303032], [-5.997243728964536, 9.690332799529086, -2.7318589674693743], [6.3593590897666505, -10.122653509958143, 1.8270810614274384], [-12.278638641953899, 10.377561160992805, -2.2145006576813695], [3.3836573675089685, 2.3718519964996463, 6.212466692636599]]" pbc="F F F"
O       26.89000000      27.38000000      27.33000000
H       26.41000000      26.56000000      27.18000000
H       27.54000000      27.40000000      26.63000000
O       25.11000000      24.98000000      26.71000000
H       24.19000000      24.75000000      26.82000000
H       25.59000000      24.18000000      26.91000000
O       29.42000000      26.56000000      26.00000000
H       30.04000000      25.84000000      25.97000000
H       28.71000000      26.28000000      25.42000000
9
Properties=species:S:1:pos:R:3 energy=-8.35341563361884 energy_total=-143883.38182787213 forces="_JSON [[2.9950910822967023, -13.642974382193238, 5.242221977895856], [-6.2814897786736115, 0.31267610945682944, -4.768823240366826], [1.8456261168766603, 2.4643934714825266, -2.467483721146871], [1.0171427515692646, -1.4450107039439806, -6.017890059319827], [1.0210773058234053, 4.589968222571878, -0.3185103490380144], [2.244909852766723, 6.612825968221811, 7.030225492339879], [-3.934435672036112, -0.363898835665958, 2.412401147409943], [-1.5236555420057385, 1.4429284021747608, 0.6417627964673225], [2.61573506920376, 0.029090562074321168, -1.7539052300625162]]" forces_total="_JSON [[6.430740773878254, -23.712689282878433, -1.1433686593861239], [-5.019547314726196, 9.793563265484492, -9.601351159347573], [-2.8519660386523062, 3.053222401961115, 8.750634835115855], [-5.884673736395023, -1.6134044084086, -6.128342175488527], [10.372775187222546, 4.739037787155397, -3.3068635961110786], [-0.20497272648918238, 6.632150108102911, 10.129030855581643], [4.925546094026967, -0.6408793597827727, -6.519734272270299], [-15.634782589389152, 2.6315373205571926, 6.504906765822503], [7.866879164703041, -0.8825366463702429, 1.3150862202625448]]" pbc="F F F"
O       26.83000000      27.42000000      27.23000000
H       26.75000000      26.54000000      27.59000000
H       27.20000000      27.30000000      26.36000000
O       27.06000000      24.77000000      28.24000000
H       26.11000000      24.75000000      28.34000000
H       27.20000000      24.75000000      27.29000000
O       26.99000000      25.07000000      25.31000000
H       27.82000000      25.01000000      24.85000000
H       26.34000000      25.21000000      24.62000000
9
Properties=species:S:1:pos:R:3 energy=-6.885843745335913 energy_total=-143881.8749094556 forces="_JSON [[11.145768056350752, -7.528840714562796, -11.758760462428087], [-5.06095144261577, -0.5465781263571121, 1.7467049246281736], [0.929530734704066, 3.860240034565536, 5.022287747179882], [-11.87466142633572, 4.523252744304171, 6.224932043546645], [3.7962270424778137, -0.3172759093217509, 0.041101743521035586], [-0.4835434366381855, -0.963985951222551, -1.4930578013729445], [1.6813590696767835, -0.7165347429696993, 0.6482563525540247], [0.26783547215541054, 2.950326337542682, -0.5176357919144272], [-0.4015628839540956, -1.260604857799533, 0.08617243010675302]]" forces_total="_JSON [[12.677400616580606, -5.8780390676030025, -20.8309176320568], [0.5964383441762452, -6.690014618030379, 5.707707731537639], [-6.2594916123178015, 8.35287487927901, 10.133442109899125], [-1.1473043994613183, 5.716505337930489, 7.719576473488619], [6.375815914341388, 2.7606091989014594, 4.167783910504605], [-13.790489335376162, -5.23512365307208, -7.1143855841195425], [-9.024551197631496, -3.3760787851586915, -6.141477515293568], [2.9250114297013887, 5.580216552657137, -6.580306011661964], [7.64717023998715, -1.2309498449039427, 12.93857651770188]]" pbc="F F F"
O       26.91000000      26.85000000      27.28000000
H       26.40000000      27.46000000      26.75000000
H       27.56000000      26.49000000      26.68000000
O       28.72000000      25.67000000      25.70000000
H       28.77000000      25.10000000      24.93000000
H       29.63000000      25.84000000      25.92000000
O       25.12000000      27.42000000      24.94000000
H       24.61000000      27.03000000      25.65000000
H       24.55000000      27.38000000      24.18000000
9
Properties=species:S:1:pos:R:3 energy=-7.205250229284717 energy_total=-143882.33057149182 forces="_JSON [[4.431686014226927, -1.9012209653085204, -8.479199210243275], [-2.144035613243803, 8.190614241300954, 6.424841314139147], [-2.7440918974530155, -2.004519023063949, 3.3929257448598937], [-0.9355784220748077, -1.8323081606294442, -1.3395912123245788], [-1.5834968156287024, -5.442491738088497, -1.1400791917848614], [1.5262287736909368, 0.4625698196722427, 1.6740437396002918], [-3.5049028269028635, 2.2153141309237867, -2.417841694401505], [1.7264107831256492, 0.05881791005414972, 0.32100057324949616], [3.2277800042596785, 0.25322378513927724, 1.5638987510843396]]" forces_total="_JSON [[8.586468582705491, -2.0007979165993635, -13.667238652581496], [-0.4372323812309411, 2.1602659459974, 11.390204907486657], [-8.605677697944442, 4.125406223530449, 3.6156015938506063], [-0.6064917350643136, 2.1177566328863504, -10.011730622831365], [-2.544466038092201, -3.5061645405033475, -0.49350077602095455], [2.1581113091439414, -5.423822171428702, 9.699604734343172], [-0.34505376749030536, 6.228496621632224, -8.039286873432358], [2.96323399970553, 1.5271952178492023, -1.8614639428616853], [-1.1688922717327606, -5.228336013364212, 9.367808446226375]]" pbc="F F F"
O       26.63000000      26.96000000      27.34000000
H       26.61000000      27.59000000      26.62000000
H       27.35000000      26.37000000      27.12000000
O       27.49000000      28.97000000      25.42000000
H       27.14000000      29.38000000      26.22000000
H       27.37000000      29.63000000      24.74000000
O       29.69000000      27.28000000      27.05000000
H       29.18000000      27.76000000      27.71000000
H       29.99000000      27.96000000      26.45000000
9
Properties=species:S:1:pos:R:3 energy=-5.44276810881652 energy_total=-143880.54856044508 forces="_JSON [[-15.474712162896148, -12.880355075637436, -6.836768274097219], [-0.7119064833995022, 4.079568310723386, 3.195741491047384], [6.306065919998832, 2.0341147449068857, -0.5460184188200549], [16.796073748171626, 8.704447105098133, 2.2051136982251363], [-0.13611328375749507, -1.830487925312956, -1.2837188817662977], [-3.7874531525060258, 0.10817652556782777, 1.1759977114828555], [-1.0318540475538567, -0.9623708629482468, 0.8106806338374054], [-2.753589138267186, 1.7447566206379526, 1.3369776627235774], [0.7934886002097558, -0.9978494430355455, -0.05800799427489128]]" forces_total="_JSON [[-19.615953840769517, -15.103220515027276, -9.895306711839321], [5.479662484818551, 8.831746180968036, 3.922091274873481], [4.255738629654147, -0.49519887176897465, 1.7861702350959499], [16.913415484658763, 0.14977157064694693, -3.0173702882420934], [-0.8304067670555018, -3.3993196919781363, -1.9653987865226215], [-3.2105014056951533, 10.231683826684193, 7.080161602706409], [8.433456163120457, 1.2457903953833218, 5.129713648021104], [-14.164847112730342, -0.42829721959593336, -6.279699188883451], [2.7394363639985975, -1.0329568611332283, 3.2396358431484384]]" pbc="F F F"
O       27.24000000      26.99000000      27.37000000
H       26.48000000      26.47000000      27.11000000
H       27.48000000      27.48000000      26.58000000
O       25.17000000      25.49000000      26.81000000
H       24.35000000      25.72000000      27.26000000
H       24.98000000      24.66000000      26.38000000
O       27.88000000      27.40000000      24.49000000
H       28.73000000      27.60000000      24.87000000
H       27.98000000      27.62000000      23.56000000
9
Properties=species:S:1:pos:R:3 energy=-4.398483277192653 energy_total=-143879.47990964082 forces="_JSON [[12.185669085570856, 5.320467194262724, -2.1159672289172433], [-5.899708761527108, 0.5884210080363266, -5.8850686148057], [-0.8739074265669313, -2.0658235998664214, 2.6728347245519872], [-3.000210271782877, -3.7712263772155885, 3.2714917399185577], [-4.091109907033077, -0.9435020783515327, 1.5564612814393803], [1.954332704455217, 0.9554231373982119, -1.7426126561739725], [-3.8155310234010105, -3.305342187699968, 2.3608013301059323], [0.45077327183613736, -0.014794303458308709, -0.4609808194611068], [3.0896911426277405, 3.2363772068945567, 0.34303905752111125]]" forces_total="_JSON [[22.3567100236002, 9.99417928542463, -5.114275443730969], [-15.742576094756835, -7.361435984856451, -1.562192354588948], [-1.2020810313665486, 1.210322487685501, 1.348266679148962], [-4.046955860121397, 2.010718495529486, 1.4458123189758676], [-2.079518647208519, -2.752262204508783, 10.253275256418794], [0.9894870329691785, -3.0177616091896127, -8.613746024389643], [-7.198784025930877, -4.209725215331226, -3.2689872858544384], [-0.9944781537816202, 7.079572249643024, 5.125195669808844], [7.918195570775365, -2.9536063185755195, 0.38664999839047803]]" pbc="F F F"
O       26.60000000      27.14000000      26.97000000
H       27.35000000      27.65000000      26.68000000
H       26.97000000      26.31000000      27.28000000
O       28.73000000      28.97000000      26.89000000
H       28.51000000      29.41000000      26.07000000
H       28.78000000      29.68000000      27.53000000
O       28.23000000      27.12000000      24.36000000
H       28.21000000      26.48000000      23.65000000
H       27.56000000      27.76000000      24.12000000
9