9
Properties=species:S:1:pos:R:3 energy=-7.551848231357552 forces="_JSON [[16.49416826003824, -10.623781070745698, -15.08826481835564], [-6.61790152963671, -1.9329708413001911, 9.82779636711281], [-6.227055449330784, 11.578011472275334, 9.611687380497132], [0.059062141491395784, -3.8059034416826, -2.0538934034416823], [0.8669455066921606, 2.417232313575526, 0.5278107074569789], [-1.7736304971319308, 2.008537284894837, 1.0540798279158698], [-0.07967543021032504, 5.1417065009560226, -4.562356596558317], [-0.44671367112810706, -1.4852891969407265, 1.1039627151051623], [-2.2751744741873803, -3.2975621414913956, -0.4208317399617591]]" pbc="F F F"
O       27.41000000      26.73000000      26.86000000
H       26.54000000      26.42000000      26.60000000
H       27.24000000      27.54000000      27.35000000
O       26.72000000      29.11000000      28.08000000
H       27.16000000      29.95000000      28.00000000
H       25.79000000      29.32000000      27.99000000
O       24.85000000      25.48000000      27.23000000
H       24.06000000      25.25000000      27.72000000
H       24.64000000      25.27000000      26.32000000
9
Properties=species:S:1:pos:R:3 energy=-4.901497131931166 forces="_JSON [[12.171223709369025, -9.058986615678776, -4.378967495219885], [4.828776290630975, 8.6842017208413, 2.035915391969407], [-8.714866156787762, -3.1967017208413, 3.168140535372849], [-6.178346080305927, 6.775334608030593, 2.4750956022944552], [-0.8847179732313574, -1.4077509560229444, 0.37272466539196936], [0.5315200764818355, -2.6283460803059273, -0.8264627151051624], [-6.0088910133843205, 0.7907600382409177, -3.613599426386233], [1.913599426386233, 1.1180640535372848, -0.27563097514340346], [2.3417304015296363, -1.0765559273422562, 1.042779636711281]]" pbc="F F F"
O       27.26000000      26.65000000      27.10000000
H       27.50000000      27.31000000      26.45000000
H       26.46000000      26.98000000      27.50000000
O       24.63000000      26.16000000      27.73000000
H       23.78000000      26.29000000      28.16000000
H       24.41000000      25.82000000      26.86000000
O       28.94000000      28.76000000      26.09000000
H       28.93000000      29.44000000      25.42000000
H       29.76000000      28.29000000      25.95000000
9
Properties=species:S:1:pos:R:3 energy=-4.753737332695985 forces="_JSON [[-4.991491395793498, -8.09639101338432, 9.426195028680688], [6.028393881453154, 5.15513862332696, -10.903130975143403], [2.747323135755258, 2.2568642447418736, 2.2455305927342257], [-6.837786806883365, -2.514627151051625, 1.8872944550669215], [1.8903585086042065, 1.6745219885277245, -1.7298781070745697], [3.135229445506692, 0.45000956022944544, 0.07903059273422561], [-2.3707146271510515, 0.5507958891013384, -4.328465583173996], [0.5612069789674952, 0.3300286806883365, 1.5072944550669214], [-0.162493068833652, 0.1936670650095602, 1.8161137667304013]]" pbc="F F F"
O       27.19000000      26.70000000      27.41000000
H       27.55000000      26.83000000      26.53000000
H       26.41000000      27.25000000      27.42000000
O       28.50000000      27.65000000      25.09000000
H       28.23000000      28.46000000      24.66000000
H       29.45000000      27.73000000      25.20000000
O       25.87000000      29.14000000      29.02000000
H       26.05000000      29.96000000      28.57000000
H       24.91000000      29.07000000      29.03000000
9
Properties=species:S:1:pos:R:3 energy=-3.4414959369024856 forces="_JSON [[1.17835086042065, -4.138886233269598, -3.4111615678776293], [-3.9710564053537283, 2.0149282982791585, 6.855282026768641], [3.7846558317399612, 0.5000908221797322, -1.2838479923518165], [3.261950286806883, -0.8596367112810707, -7.069072657743785], [-0.4645100382409177, 1.9617160611854683, 2.704565009560229], [-1.6326577437858507, 0.16382958891013383, 1.5485946462715103], [-4.889077437858508, -0.16400215105162522, 3.086400573613766], [1.667311185468451, 0.8731070745697895, -1.5345602294455067], [1.0650286806883364, -0.3511543977055449, -0.8962045889101338]]" pbc="F F F"
O       27.05000000      26.61000000      27.24000000
H       26.54000000      27.35000000      27.55000000
H       27.42000000      26.90000000      26.41000000
O       25.39000000      28.62000000      28.87000000
H       25.89000000      29.42000000      28.71000000
H       24.48000000      28.88000000      28.73000000
O       29.06000000      27.92000000      24.65000000
H       28.61000000      28.76000000      24.63000000
H       29.33000000      27.77000000      23.74000000
9
Properties=species:S:1:pos:R:3 energy=-6.7074034416826 forces="_JSON [[7.640057361376673, 2.0471797323135754, -19.51034894837476], [-3.858675908221797, -7.8795650095602285, 8.18178776290631], [-0.24141969407265773, -0.2661257170172084, 13.238145315487571], [2.3367375717017205, 6.275932122370936, 1.1939961759082218], [-0.2019067877629063, -1.7363742829827915, -0.25925191204588904], [-2.387609942638623, -2.0642949330783935, -2.456214149139579], [-3.712284894837476, 0.691015774378585, -5.270554493307839], [1.2303776290630974, 2.2593905353728485, 2.081591778202677], [-0.8052772466539196, 0.6728346080305927, 2.800884321223709]]" pbc="F F F"
O       27.22000000      26.98000000      26.77000000
H       26.73000000      26.22000000      27.08000000
H       26.80000000      27.73000000      27.19000000
O       25.49000000      24.70000000      27.32000000
H       25.18000000      23.79000000      27.35000000
H       24.94000000      25.11000000      26.65000000
O       26.41000000      28.60000000      28.93000000
H       26.64000000      29.52000000      28.77000000
H       25.48000000      28.62000000      29.15000000
9
Properties=species:S:1:pos:R:3 energy=-9.609809512428297 forces="_JSON [[22.391969407265773, -3.699498087954111, -10.668307839388145], [-10.153274378585085, -9.950932122370936, 0.2301759082217973], [-7.4592017208413, 12.0236137667304, 7.349139579349904], [-3.251003824091778, -4.3746653919694065, 1.4042471319311662], [1.1506429254302102, 2.4268642447418736, 0.21668618546845123], [-1.0820578393881453, 2.2229732313575528, 1.806326481835564], [1.2886400573613765, 5.037619502868068, 0.67875], [-2.3390009560229443, -1.3116658699808794, -1.4185420650095601], [-0.5467208413001912, -2.3743044933078394, 0.4015176864244741]]" pbc="F F F"
O       27.32000000      27.00000000      26.77000000
H       26.63000000      26.38000000      26.53000000
H       26.91000000      27.57000000      27.42000000
O       26.25000000      28.96000000      28.31000000
H       26.58000000      29.85000000      28.46000000
H       25.45000000      28.91000000      28.84000000
O       25.33000000      25.09000000      26.40000000
H       24.51000000      25.37000000      25.99000000
H       25.07000000      24.38000000      26.98000000
9
Properties=species:S:1:pos:R:3 energy=-3.066889340344168 forces="_JSON [[1.4970004780114723, 1.4387643403441681, -6.7067638623326955], [1.2408675908221798, -3.7217017208413, -2.0969885277246654], [1.7697705544933078, 1.1277748565965584, 9.28972275334608], [-2.1691539196940726, -4.515152963671127, -6.3971797323135755], [1.1868499043977054, 2.556214149139579, 1.3111424474187379], [-1.8336089866156786, 2.956214149139579, 2.591969407265774], [-1.8345578393881454, 3.692734225621414, 4.172657743785851], [-0.585336998087954, -1.7411161567877627, -1.6124163479923517], [0.7281692160611855, -1.7937332695984702, -0.5521558317399617]]" pbc="F F F"
O       27.27000000      26.96000000      26.72000000
H       26.69000000      26.24000000      26.97000000
H       26.97000000      27.71000000      27.24000000
O       26.61000000      28.78000000      28.94000000
H       26.93000000      29.68000000      28.86000000
H       25.67000000      28.85000000      28.75000000
O       25.85000000      24.17000000      26.19000000
H       24.93000000      24.42000000      26.24000000
H       25.97000000      23.54000000      26.91000000
9
Properties=species:S:1:pos:R:3 energy=-7.286269598470363 forces="_JSON [[13.616539196940726, 21.524832695984703, -8.666419694072657], [-9.26541586998088, 1.827342256214149, 3.9032026768642445], [-4.927151051625239, -14.838264818355638, 5.330736137667304], [0.001818362810707457, -1.2587476099426385, -3.9441682600382406], [2.762595602294455, -1.7743499043977053, 3.149163479923518], [0.5497179732313575, -2.413790630975143, 1.0449928298279156], [0.3848757170172084, -5.683986615678776, 1.1802700764818355], [-1.8969311663479922, 0.6731500956022944, 0.21247323135755256], [-1.2260683556405352, 1.9437930210325045, -2.210248565965583]]" pbc="F F F"
O       27.25000000      27.41000000      26.94000000
H       26.31000000      27.26000000      27.01000000
H       27.64000000      26.54000000      27.00000000
O       27.71000000      24.86000000      27.64000000
H       28.54000000      24.91000000      28.12000000
H       27.50000000      23.93000000      27.62000000
O       24.47000000      27.79000000      26.93000000
H       23.75000000      27.26000000      27.27000000
H       24.38000000      27.73000000      25.98000000
9
Properties=species:S:1:pos:R:3 energy=-10.384750239005736 forces="_JSON [[8.777963671128106, 16.603011472275334, 3.1843929254302106], [-5.102461759082217, -3.3131453154875716, 2.304801625239006], [-13.63274378585086, -10.569383365200764, -3.2448135755258125], [3.8998565965583167, 5.3202437858508596, 4.268188336520076], [-1.837437858508604, -2.0498398661567876, -1.7579373804971317], [-1.9445793499043975, -3.8679254302103248, 0.2276763862332696], [28.142686424474185, 5.0401051625239, -25.20889101338432], [-1.6788121414913957, -1.7692614722753344, 4.030951242829827], [-16.624402485659655, -5.393809751434034, 16.19555449330784]]" pbc="F F F"
O       27.29000000      27.02000000      26.92000000
H       26.66000000      27.73000000      27.03000000
H       26.78000000      26.22000000      27.01000000
O       25.29000000      25.10000000      26.54000000
H       24.59000000      24.98000000      25.90000000
H       25.14000000      24.40000000      27.18000000
O       29.28000000      27.31000000      25.27000000
H       28.94000000      27.80000000      24.52000000
H       28.55000000      27.29000000      25.89000000
9
Properties=species:S:1:pos:R:3 energy=-5.997568355640535 forces="_JSON [[11.475071701720841, 4.450478011472275, -5.343092734225621], [-13.220721797323135, 0.986003824091778, 5.816586998087954], [3.2711520076481837, -3.6470363288718928, -2.7256692160611853], [7.729995219885277, -2.5475382409177816, 1.2934034416826004], [-3.108389101338432, 0.6808938814531549, 0.46703393881453154], [-4.176768642447418, -0.2870267686424474, -2.8143881453154873], [-5.260731357552581, 5.128585086042065, -0.16314913957934987], [2.456022944550669, -2.284937858508604, 3.5297323135755256], [0.8343546845124282, -2.479421606118547, -0.06046964627151052]]" pbc="F F F"
O       27.25000000      27.34000000      26.73000000
H       26.32000000      27.30000000      26.93000000
H       27.63000000      26.61000000      27.23000000
O       24.54000000      27.11000000      27.36000000
H       23.84000000      26.94000000      27.99000000
H       24.25000000      26.68000000      26.56000000
O       28.55000000      24.84000000      27.82000000
H       28.33000000      25.27000000      28.65000000
H       27.88000000      24.16000000      27.72000000
9
Properties=species:S:1:pos:R:3 energy=-3.5065860420650097 forces="_JSON [[-1.268840822179732, 6.315726577437858, 6.424569789674951], [4.425, -5.762810707456979, -0.4670721797323136], [1.732019598470363, -1.9595960803059274, -7.924521988527724], [1.0108986615678774, -2.3423828871892924, 7.736065965583174], [-3.145076481835564, 1.388522944550669, -2.9362093690248563], [-0.16229397705544932, 1.7432695984703632, -2.1033580305927337], [-4.8908221797323135, 4.5365678776290626, 0.4227748565965583], [1.912863288718929, -0.911986137667304, -1.1508245697896748], [0.3862380497131931, -3.0073135755258122, -0.001391261950286807]]" pbc="F F F"
O       27.23000000      27.15000000      27.34000000
H       26.73000000      26.34000000      27.39000000
H       26.89000000      27.61000000      26.57000000
O       26.06000000      27.76000000      24.61000000
H       25.22000000      27.63000000      25.05000000
H       25.97000000      28.60000000      24.16000000
O       26.85000000      24.05000000      27.21000000
H       27.06000000      23.87000000      26.30000000
H       25.90000000      23.94000000      27.27000000
9
Properties=species:S:1:pos:R:3 energy=-4.502001434034416 forces="_JSON [[1.219956978967495, 0.33758126195028676, 7.493690248565965], [-3.595554493307839, -1.3767829827915867, -8.528656787762905], [2.478752390057361, 0.673554015296367, -1.5188025812619501], [4.145697896749521, -2.29664913957935, 8.051673040152963], [-1.9420650095602292, 0.6899426386233269, -2.749235181644359], [-1.0184153919694072, 1.5596128107074567, -2.351132887189292], [-1.6764077437858507, 4.316849904397705, -1.105007170172084], [0.9774067877629062, -1.5176744741873802, -0.4407337476099426], [-0.5893666347992351, -2.386429254302103, 1.148224187380497]]" pbc="F F F"
O       27.14000000      27.30000000      27.40000000
H       26.82000000      27.60000000      26.55000000
H       26.98000000      26.35000000      27.38000000
O       25.74000000      27.29000000      24.65000000
H       25.17000000      26.57000000      24.40000000
H       25.53000000      27.99000000      24.03000000
O       27.02000000      23.74000000      27.27000000
H       27.02000000      23.79000000      26.32000000
H       26.15000000      24.03000000      27.53000000
9
Properties=species:S:1:pos:R:3 energy=-6.973411089866157 forces="_JSON [[2.8638623326959842, 9.31008604206501, 18.727318355640534], [-3.2956261950286807, -7.068953154875716, -4.978776290630975], [2.5023900573613767, -1.8980544933078392, -13.538049713193116], [-2.9298757170172083, -3.023422562141491, 4.132863288718929], [0.25900095602294454, -0.05518044933078393, -2.489651051625239], [-0.7776314531548756, 2.4887667304015295, -2.0122036328871893], [2.938934034416826, 2.2407265774378584, -2.046816443594646], [-0.5357456978967495, -1.1574067877629062, 1.1185444550669215], [-1.0252915869980879, -0.8365607074569789, 1.086744741873805]]" pbc="F F F"
O       27.05000000      27.39000000      27.37000000
H       27.42000000      26.51000000      27.36000000
H       26.53000000      27.45000000      26.58000000
O       26.17000000      27.68000000      24.72000000
H       25.85000000      26.99000000      24.13000000
H       25.49000000      28.35000000      24.68000000
O       26.50000000      24.48000000      27.11000000
H       26.57000000      23.77000000      27.73000000
H       25.60000000      24.45000000      26.80000000
9
Properties=species:S:1:pos:R:3 energy=-3.3731780592734224 forces="_JSON [[13.334918738049712, 6.750215105162523, 8.703800191204587], [-5.868522944550668, -1.7910755258126192, -5.405927342256214], [-5.7168260038240915, -4.373804971319311, -7.862045889101338], [-2.6670650095602295, -0.6293522944550669, 4.625669216061185], [0.43090344168260036, -0.1995877151051625, -1.134753824091778], [-0.42104445506692156, 0.5281907265774378, -1.7168475143403439], [0.5217662523900574, 4.778585086042065, -1.3345793499043976], [0.46554732313575525, -1.5694383365200764, 0.16700717017208414], [-0.07965750478011473, -3.4937380497131927, 3.9576720841300186]]" pbc="F F F"
O       27.38000000      27.12000000      26.70000000
H       27.21000000      27.17000000      27.64000000
H       26.57000000      26.79000000      26.32000000
O       25.69000000      26.27000000      24.45000000
H       25.59000000      25.50000000      23.89000000
H       24.94000000      26.82000000      24.24000000
O       25.92000000      25.68000000      28.93000000
H       26.13000000      24.76000000      29.07000000
H       26.65000000      26.16000000      29.31000000
9
Properties=species:S:1:pos:R:3 energy=-5.891249760994263 forces="_JSON [[6.007050669216061, -1.8318785850860417, 5.835181644359464], [-1.6593379541108983, 2.7503107074569786, 2.227576481835564], [-3.9865678776290627, 0.06590559273422562, -9.21123326959847], [4.249617590822179, 0.28446940726577435, 7.77887189292543], [-3.567280114722753, 0.7077390057361376, -2.079811185468451], [-0.9285731357552581, -0.8353178776290631, -2.0045793499043976], [-4.029827915869981, -0.5005664435946462, -4.789961759082217], [1.5875860420650094, -0.906073135755258, 1.9968881453154874], [2.327330305927342, 0.26541108986615675, 0.24707456978967493]]" pbc="F F F"
O       27.27000000      27.04000000      26.97000000
H       26.70000000      27.01000000      27.73000000
H       26.69000000      26.92000000      26.22000000
O       25.33000000      26.67000000      24.65000000
H       24.59000000      26.96000000      25.19000000
H       25.00000000      25.89000000      24.20000000
O       26.55000000      27.01000000      30.17000000
H       26.41000000      26.06000000      30.17000000
H       27.48000000      27.11000000      30.37000000
9
Properties=species:S:1:pos:R:3 energy=-7.509250239005736 forces="_JSON [[4.061304971319312, 7.468618546845124, -7.756763862332695], [3.133054493307839, -1.300939292543021, 9.962834608030592], [-6.649928298279158, -4.067447418738049, -0.7674737093690248], [-5.941610898661567, -2.758173996175908, -3.839937858508604], [1.091720841300191, 1.3719670172084129, 1.0722609942638621], [3.0139579349904393, 0.8668475143403441, -0.0886135277246654], [2.065164913957935, -3.4900334608030588, 4.749426386233269], [-0.6613718929254302, 0.4594359464627151, -0.9738814531548756], [-0.11228895793499044, 1.449746653919694, -2.357853728489484]]" pbc="F F F"
O       26.93000000      27.38000000      26.56000000
H       27.31000000      27.49000000      27.43000000
H       26.64000000      26.47000000      26.53000000
O       28.63000000      27.68000000      28.98000000
H       28.83000000      28.38000000      29.61000000
H       29.44000000      27.56000000      28.49000000
O       25.40000000      25.25000000      25.17000000
H       24.70000000      24.70000000      24.82000000
H       26.08000000      25.24000000      24.50000000
9
Properties=species:S:1:pos:R:3 energy=-7.726271749521988 forces="_JSON [[-8.812332695984704, -13.892304015296366, -10.180688336520076], [9.703608986615679, 8.70425430210325, 7.550549713193116], [2.9971558317399616, 6.545315487571701, 0.9088575525812619], [-8.839961759082216, -2.3688025812619498, 1.7119120458891013], [2.73604206500956, 1.431498565965583, -0.15500119502868068], [4.044789674952199, -0.8926242829827915, -1.1261974187380497], [-3.9252629063097513, 0.2875717017208413, -3.394455066921606], [0.13224330783938812, 0.1276199808795411, 0.6446319311663479], [1.9637308795411086, 0.05746319311663479, 4.040415869980879]]" pbc="F F F"
O       27.05000000      26.64000000      26.65000000
H       27.58000000      26.93000000      27.40000000
H       26.38000000      27.32000000      26.55000000
O       28.95000000      27.49000000      28.55000000
H       29.37000000      28.12000000      29.13000000
H       29.67000000      26.95000000      28.22000000
O       26.38000000      29.26000000      27.93000000
H       26.05000000      29.94000000      28.52000000
H       26.33000000      28.45000000      28.44000000
9
Properties=species:S:1:pos:R:3 energy=-6.817940248565965 forces="_JSON [[-20.29684512428298, -6.213790630975144, -2.5348709369024855], [8.015893881453154, 10.109249521988527, -3.24746653919694], [5.6934034416826, -2.984321223709369, 9.408556405353728], [4.306429254302103, 0.17031763862332694, -4.304421606118547], [-1.468269598470363, 1.3125979923518163, 2.41656309751434], [1.9999808795411087, 0.4609847036328872, 2.397825047801147], [1.1727246653919694, -4.958986615678776, 2.6273661567877626], [0.7264268642447418, 0.4276983747609942, -5.1396271510516245], [-0.14973589866156786, 1.6762619502868068, -1.6238957934990437]]" pbc="F F F"
O       26.61000000      26.90000000      27.10000000
H       27.02000000      27.05000000      26.24000000
H       27.35000000      26.91000000      27.71000000
O       28.21000000      26.82000000      29.35000000
H       27.89000000      27.59000000      29.83000000
H       29.14000000      27.00000000      29.19000000
O       27.95000000      28.10000000      24.99000000
H       27.88000000      27.39000000      24.35000000
H       28.17000000      28.88000000      24.46000000
9
Properties=species:S:1:pos:R:3 energy=-6.20627533460803 forces="_JSON [[-34.31405353728489, 5.567710325047801, -15.421749521988525], [3.5209130019120454, -6.20762428298279, -7.524139579349904], [14.83891013384321, -2.1533293499043973, 13.59899617590822], [6.573661567877628, 0.1966694550669216, 4.431548757170171], [1.5899665391969404, 3.046080305927342, 3.386257170172084], [3.8296367112810703, 1.0148828871892923, 2.1735468451242825], [5.68439292543021, 5.373996175908221, -0.44518403441682597], [0.7964698852772466, -2.810803059273422, -1.5843068833652008], [-2.5199091778202676, -4.0276051625238996, 1.3850334608030592]]" pbc="F F F"
O       26.68000000      27.05000000      26.94000000
H       27.28000000      26.70000000      26.27000000
H       27.25000000      27.26000000      27.68000000
O       28.51000000      27.32000000      28.72000000
H       28.60000000      28.15000000      29.18000000
H       29.39000000      27.13000000      28.38000000
O       28.01000000      25.31000000      25.28000000
H       28.97000000      25.27000000      25.24000000
H       27.77000000      24.70000000      25.98000000
9
Properties=species:S:1:pos:R:3 energy=-8.232390296367113 forces="_JSON [[-16.267375717017206, -7.482289674952199, 17.38374760994264], [8.876553537284893, 8.268499043977055, -11.506596558317398], [7.009560229445506, 1.3158914913957933, -8.173589866156787], [0.4977629063097514, -3.0448374760994263, 2.5586520076481833], [1.3373350860420647, 0.7940224665391968, -1.1981835564053536], [-0.7928441682600382, 1.1921032504780114, -1.5260492351816441], [-3.4717017208413, 3.0490678776290627, 2.2647681644359463], [0.9071295411089866, -1.001782982791587, -0.2165186424474187], [1.9035874760994262, -3.0906548757170165, 0.4137762906309751]]" pbc="F F F"
O       26.69000000      27.09000000      27.24000000
H       27.14000000      27.61000000      26.58000000
H       27.26000000      26.34000000      27.38000000
O       27.83000000      28.76000000      25.33000000
H       28.76000000      28.84000000      25.11000000
H       27.37000000      29.15000000      24.59000000
O       28.97000000      25.24000000      26.62000000
H       29.83000000      24.99000000      26.30000000
H       28.79000000      24.65000000      27.34000000
9
Properties=species:S:1:pos:R:3 energy=-0.12377461759082219 forces="_JSON [[-8.634870936902486, -9.369478967495219, -0.07293140535372848], [-7.275119502868069, 3.3978489483747607, -4.687858508604206], [2.570673996175908, 10.732528680688334, 9.54612810707457], [-0.20822203632887187, -3.891347992351816, -3.2169694072657746], [1.7089674952198852, 0.6649545889101338, 4.154851816443594], [-0.09618929254302103, 2.368032982791587, 1.8505975143403441], [12.110683556405354, 3.0366156787762906, -2.0870865200764817], [-0.6474665391969406, -0.8969909177820267, -1.7081907265774376], [0.4715559273422562, -6.04213671128107, -3.778537284894837]]" pbc="F F F"
O       26.55000000      26.79000000      26.70000000
H       27.43000000      26.98000000      26.38000000
H       26.53000000      27.16000000      27.58000000
O       27.26000000      28.21000000      28.95000000
H       27.96000000      27.67000000      29.32000000
H       27.41000000      29.08000000      29.32000000
O       28.30000000      26.21000000      24.68000000
H       29.06000000      26.48000000      24.17000000
H       28.65000000      26.00000000      25.54000000
9
Properties=species:S:1:pos:R:3 energy=-8.838076481835564 forces="_JSON [[-14.48197896749522, -27.54923518164436, 33.33867112810707], [8.27296845124283, 13.924713193116634, -18.316658699808794], [-0.20119909177820267, 8.121367112810708, 0.22918785850860418], [3.2012428298279154, 6.310683556405353, -7.492662523900573], [2.8506214149139577, -0.9723398661567876, -2.532050669216061], [0.6336663479923518, 1.8553537284894837, -2.7800908221797322], [-2.446152007648183, -0.23153800191204588, -5.215009560229445], [1.962519120458891, -1.5203776290630975, 1.5479254302103247], [0.208307361376673, 0.06142710325047801, 1.220628585086042]]" pbc="F F F"
O       27.09000000      26.66000000      27.21000000
H       27.52000000      27.07000000      26.46000000
H       26.43000000      27.30000000      27.49000000
O       28.20000000      27.75000000      25.19000000
H       28.93000000      27.29000000      24.77000000
H       27.99000000      28.46000000      24.58000000
O       26.04000000      28.82000000      29.07000000
H       26.65000000      28.37000000      29.65000000
H       25.54000000      29.39000000      29.65000000
9
Properties=species:S:1:pos:R:3 energy=-10.700407265774379 forces="_JSON [[-0.4671701720841299, -27.934512428298277, 1.2194335564053536], [1.1530736137667303, 18.101386233269597, -4.023422562141491], [-0.1468998565965583, 9.73922084130019, 7.38807361376673], [0.8383604206500955, -1.4926983747609943, 2.124581739961759], [-1.3999737093690248, 2.2498087954110897, -1.0935325047801145], [0.5657170172084129, 1.0201744741873804, -3.064937858508604], [-1.9023422562141488, -1.2371869024856594, -6.309058317399617], [1.6136591778202676, 0.14419526768642446, 1.5261591778202677], [-0.2544216061185468, -0.5902963671128106, 2.2327007648183557]]" pbc="F F F"
O       27.05000000      26.58000000      26.81000000
H       27.17000000      27.37000000      26.28000000
H       26.79000000      26.90000000      27.67000000
O       27.23000000      28.88000000      25.40000000
H       26.51000000      29.52000000      25.33000000
H       27.55000000      28.81000000      24.50000000
O       26.71000000      27.71000000      29.51000000
H       27.54000000      27.86000000      29.96000000
H       26.16000000      27.25000000      30.15000000
9
Properties=species:S:1:pos:R:3 energy=-4.436100382409178 forces="_JSON [[-9.81434034416826, -9.552174952198852, -10.340344168260037], [5.22189292543021, 8.648757170172082, 6.11472275334608], [-0.34623804971319305, 5.687045889101338, 3.563886233269598], [-3.020602294455067, -5.919956978967495, -1.6733126195028678], [2.344361854684512, 1.1385492351816442, 1.7859703632887187], [4.077198852772466, 1.3170219885277246, -0.8296988527724664], [0.4456811663479924, -2.1451601338432122, 5.930975143403441], [1.2598064053537283, 0.314980879541109, -3.3755497131931165], [-0.16775884321223708, 0.5109345124282982, -1.1766586998087953]]" pbc="F F F"
O       26.61000000      27.04000000      26.53000000
H       27.57000000      27.01000000      26.51000000
H       26.39000000      26.92000000      27.45000000
O       29.29000000      27.79000000      27.19000000
H       29.61000000      27.38000000      27.99000000
H       29.77000000      27.35000000      26.49000000
O       24.41000000      28.23000000      28.33000000
H       24.02000000      28.02000000      27.48000000
H       23.70000000      28.62000000      28.83000000
9
Properties=species:S:1:pos:R:3 energy=-9.35976171128107 forces="_JSON [[-1.8861448374760994, -17.99423996175908, 6.890750478011472], [4.710109942638623, 11.076768642447417, 1.4419574569789673], [-1.6698494263862331, 7.424067877629062, -8.486663479923518], [-7.75007170172084, -0.2094911567877629, -3.5005019120458893], [2.4613288718929254, -0.07374259082217972, 2.260958413001912], [4.628083173996176, -1.5483269598470362, -0.036160850860420646], [-2.3728824091778202, -2.4358747609942637, 3.607456978967495], [0.7043714149139579, 2.951099426386233, -0.6327605162523899], [1.1750334608030593, 0.8097323135755257, -1.5450358508604205]]" pbc="F F F"
O       26.91000000      26.67000000      27.13000000
H       27.60000000      27.28000000      27.40000000
H       26.35000000      27.19000000      26.56000000
O       29.09000000      28.40000000      27.69000000
H       29.59000000      28.47000000      28.50000000
H       29.66000000      27.89000000      27.11000000
O       26.26000000      28.48000000      25.03000000
H       26.25000000      29.35000000      25.42000000
H       27.08000000      28.44000000      24.53000000
9
Properties=species:S:1:pos:R:3 energy=-9.039494024856596 forces="_JSON [[-10.240463671128106, -15.751768642447416, 21.8828154875717], [12.032982791586997, 6.090176864244741, 1.492311185468451], [-2.335394359464627, 7.288527724665391, -14.200740917782026], [5.120984703632887, -0.9552246653919694, -5.5711759082217975], [-1.099194550669216, 1.3048494263862331, -1.8375119502868067], [-2.7878107074569787, 0.23296797323135754, -0.3401744741873805], [-4.067065009560229, 1.5257480879541108, -4.0388623326959845], [1.18243068833652, -0.6107098470363288, 1.9508819311663477], [2.1935707456978966, 0.8754421606118546, 0.662449808795411]]" pbc="F F F"
O       26.65000000      26.65000000      27.33000000
H       27.30000000      27.30000000      27.58000000
H       26.66000000      26.65000000      26.38000000
O       26.10000000      27.29000000      24.80000000
H       26.47000000      27.95000000      24.21000000
H       25.17000000      27.25000000      24.56000000
O       28.89000000      28.11000000      28.18000000
H       29.34000000      27.98000000      29.02000000
H       29.44000000      28.73000000      27.70000000
9